version 3
run General-0-20240512-18:19:00-1831
attr configname General
attr datetime 20240512-18:19:00
attr datetimef 20240512-181900
attr experiment General
attr inifile omnetpp.ini
attr iterationvars ""
attr iterationvarsd ""
attr iterationvarsf ""
attr measurement ""
attr network Network
attr processid 1831
attr repetition 0
attr replication #0
attr resultdir results
attr runnumber 0
attr seedset 0
config network Network
config sim-time-limit 200s
config Network.nodeTx.gen.generationInterval exponential(0.1)
config Network.nodeTx.gen.packetBytesize 12500
config Network.queue.bufferSize 200
config Network.nodeRx.queue.bufferSize 200
config Network.nodeTx.queue.bufferSize 2000000

vector 0 Network.nodeRx.sink Delay ETV
0	8	0.079787450457	0.0002
0	19	0.169643489305	0.0002
0	30	0.364798022893	0.0002
0	42	0.462498665532	0.0002
0	52	0.497814579446	0.0002
0	63	0.52965019353	0.0002
0	74	0.696871313562	0.0002
0	86	0.746758514464	0.0002
0	96	0.787916314088	0.0002
0	107	0.833841127814	0.0002
0	118	0.84896421318	0.0002
0	129	0.913135130448	0.0002
0	140	0.986631572567	0.0002
0	151	1.114154342789	0.0002
0	162	1.191237808636	0.0002
0	173	1.202432424699	0.0002
0	184	1.223052752902	0.0002
0	195	1.247457601976	0.0002
0	206	1.286634683044	0.0002
0	217	1.311778876251	0.0002
0	228	1.544670213672	0.0002
0	240	1.639619672022	0.0002
0	250	1.6500757946	0.0002
0	262	1.755959207749	0.0002
0	272	1.800299610611	0.0002
0	283	1.893905766588	0.0002
0	294	1.898360263434	0.000736181205
0	305	2.217118746434	0.0002
0	315	2.317920670976	0.0002
0	326	2.405112256339	0.0002
0	338	2.469490356499	0.0002
0	349	2.510740479491	0.0002
0	359	2.548896063828	0.0002
0	371	2.847615053013	0.0002
0	381	2.849434871932	0.000653361076
0	391	2.960962947431	0.0002
0	402	3.17149507751	0.0002
0	414	3.177227770152	0.0002
0	425	3.179246782967	0.0002
0	436	3.568403795252	0.0002
0	446	3.633968423688	0.0002
0	457	3.846392143388	0.0002
0	468	3.870831688196	0.0002
0	480	4.071155740447	0.0002
0	490	4.319713976145	0.0002
0	501	4.328391024379	0.0002
0	510	4.33023835203	0.001107252585
0	521	4.433509164863	0.0002
0	533	4.464260937239	0.0002
0	544	4.544740677219	0.0002
0	554	4.590913766823	0.0002
0	565	4.675222070038	0.0002
0	576	4.709256743862	0.0002
0	587	4.850359184791	0.0002
0	598	5.076732542377	0.0002
0	609	5.298883232224	0.0002
0	620	5.358521171657	0.0002
0	631	5.370873836393	0.0002
0	642	5.423946086055	0.0002
0	653	5.452687133662	0.0002
0	664	5.789124178967	0.0002
0	675	5.896907667381	0.0002
0	686	5.923113391549	0.0002
0	697	6.019558748098	0.0002
0	708	6.083071519661	0.0002
0	719	6.117037992919	0.0002
0	731	6.255335913573	0.0002
0	741	6.266190623422	0.0002
0	752	6.309893424799	0.0002
0	762	6.313365960278	0.000252193643
0	773	6.35202677585	0.0002
0	784	6.367256138375	0.0002
0	795	6.781037114426	0.0002
0	806	6.858044800381	0.0002
0	817	6.868532983941	0.0002
0	829	6.931879245713	0.0002
0	839	7.166896974688	0.0002
0	850	7.23788876741	0.0002
0	861	7.388871112971	0.0002
0	873	7.441871400785	0.0002
0	883	7.445921247624	0.000871168284
0	893	7.491977335981	0.0002
0	904	7.497168591199	0.0002
0	914	7.499105168436	0.000459800638
0	926	7.643624775997	0.0002
0	937	7.782253911199	0.0002
0	948	7.849499962882	0.0002
0	958	7.869282913628	0.0002
0	969	7.931542648026	0.0002
0	981	8.219997076867	0.0002
0	992	8.310793479599	0.0002
0	1002	8.380113456553	0.0002
0	1013	8.500210547207	0.0002
0	1024	8.531307327704	0.0002
0	1035	8.731024524453	0.0002
0	1046	9.064817957838	0.0002
0	1057	9.088693245123	0.0002
0	1068	9.113379172003	0.0002
0	1080	9.173547070655	0.0002
0	1090	9.287660860941	0.0002
0	1101	9.293468097153	0.0002
0	1113	9.506335106606	0.0002
0	1124	9.602479063763	0.0002
0	1134	9.795315077451	0.0002
0	1145	9.860438150643	0.0002
0	1156	9.953844183904	0.0002
0	1167	10.017237185843	0.0002
0	1178	10.254129002927	0.0002
0	1189	10.280164144082	0.0002
0	1200	10.514948520225	0.0002
0	1213	10.554205823044	0.0002
0	1221	10.556266644285	0.002255286051
0	1232	10.591587687616	0.0002
0	1243	10.705493452683	0.0002
0	1254	10.771543760658	0.0002
0	1265	10.797607773596	0.0002
0	1277	10.835250708748	0.0002
0	1287	10.899069569307	0.0002
0	1298	10.91575703343	0.0002
0	1309	11.019677597088	0.0002
0	1321	11.040313396448	0.0002
0	1332	11.177781391828	0.0002
0	1342	11.210201303177	0.0002
0	1353	11.332101237695	0.0002
0	1364	11.515627577989	0.0002
0	1376	11.533655007947	0.0002
0	1387	11.661697443345	0.0002
0	1398	11.799131744787	0.0002
0	1409	11.823651554051	0.0002
0	1419	11.955214179881	0.0002
0	1432	11.978679764807	0.0002
0	1442	12.091771612726	0.0002
0	1452	12.172885714949	0.0002
0	1463	12.351884675397	0.0002
0	1474	12.473453722733	0.0002
0	1485	12.545278370744	0.0002
0	1496	12.70017953866	0.0002
0	1507	12.724821120881	0.0002
0	1518	12.935909998319	0.0002
0	1529	13.061633697876	0.0002
0	1540	13.184921744179	0.0002
0	1552	13.371064908477	0.0002
0	1563	13.519489156742	0.0002
0	1573	13.717764047202	0.0002
0	1584	14.137949989827	0.0002
0	1595	14.138970176915	0.000814554956
0	1605	14.191202344789	0.0002
0	1616	14.226562002315	0.0002
0	1627	14.239420026043	0.0002
0	1638	14.291527908151	0.0002
0	1649	14.333627237956	0.0002
0	1661	14.386623395883	0.0002
0	1671	14.437622479268	0.0002
0	1683	14.586885695687	0.0002
0	1694	14.626235936799	0.0002
0	1704	14.627708140957	0.000267545034
0	1715	14.663964817813	0.0002
0	1725	14.692816088848	0.0002
0	1736	14.859112666915	0.0002
0	1747	14.998599576041	0.0002
0	1759	15.046247434301	0.0002
0	1769	15.075837621626	0.0002
0	1780	15.14055509203	0.0002
0	1791	15.201899000989	0.0002
0	1802	15.260241378093	0.0002
0	1814	15.317058426467	0.0002
0	1824	15.388259233029	0.0002
0	1835	15.496151923879	0.0002
0	1847	15.6840637673	0.0002
0	1857	15.70370995589	0.0002
0	1868	15.705936039879	0.001452543055
0	1879	15.719008798962	0.0002
0	1890	15.97825365984	0.0002
0	1900	16.045748757205	0.0002
0	1911	16.260058727248	0.0002
0	1923	16.313599162357	0.0002
0	1933	16.378090011474	0.0002
0	1944	16.459379847593	0.0002
0	1956	16.474908406143	0.0002
0	1966	16.552392644093	0.0002
0	1977	16.568293845773	0.0002
0	1988	16.582152527915	0.0002
0	1999	16.591832275146	0.0002
0	2011	16.600493974591	0.0002
0	2021	16.810157601943	0.0002
0	2032	16.865723493259	0.0002
0	2043	16.952520491461	0.0002
0	2056	16.955264701504	0.0002
0	2065	17.100920722662	0.0002
0	2076	17.137779016623	0.0002
0	2087	17.207781580235	0.0002
0	2098	17.289383436631	0.0002
0	2109	17.386584525737	0.0002
0	2122	17.403738388474	0.0002
0	2131	17.412621626739	0.0002
0	2142	17.513026744127	0.0002
0	2153	17.789087189695	0.0002
0	2164	17.919170932441	0.0002
0	2175	17.95584144782	0.0002
0	2186	18.014518328488	0.0002
0	2197	18.090414805913	0.0002
0	2208	18.167261063652	0.0002
0	2220	18.261211262238	0.0002
0	2230	18.270865390141	0.0002
0	2242	18.279916137156	0.0002
0	2252	18.462870352742	0.0002
0	2264	18.534834842511	0.0002
0	2274	18.6134907517	0.0002
0	2286	18.700276938689	0.0002
0	2296	18.747473747466	0.0002
0	2308	19.147230095138	0.0002
0	2319	19.194122227865	0.0002
0	2329	19.231238399945	0.0002
0	2341	19.395756742652	0.0002
0	2352	19.441659535401	0.0002
0	2362	19.603525642043	0.0002
0	2373	19.718591901336	0.0002
0	2384	19.819085232242	0.0002
0	2395	20.011459089309	0.0002
0	2406	20.067291768235	0.0002
0	2417	20.201319364433	0.0002
0	2429	20.548383872487	0.0002
0	2439	20.599056193877	0.0002
0	2450	20.658673383017	0.0002
0	2461	20.688410735808	0.0002
0	2472	20.807859730159	0.0002
0	2484	20.820763580477	0.0002
0	2494	20.846674806065	0.0002
0	2506	21.068796224385	0.0002
0	2516	21.117448138361	0.0002
0	2527	21.129531277987	0.0002
0	2538	21.143781572552	0.0002
0	2550	21.182997701514	0.0002
0	2560	21.341733424483	0.0002
0	2571	21.376865552637	0.0002
0	2582	21.420232038174	0.0002
0	2593	21.501281352892	0.0002
0	2605	21.580803573023	0.0002
0	2615	21.6236947566	0.0002
0	2626	21.639809014483	0.0002
0	2637	21.762880899586	0.0002
0	2648	21.857491073711	0.0002
0	2659	21.916824130537	0.0002
0	2671	21.964358097501	0.0002
0	2681	22.286889705873	0.0002
0	2692	22.290780615963	0.002141980795
0	2702	22.304911639225	0.0002
0	2713	22.329186182961	0.0002
0	2725	22.701127014051	0.0002
0	2735	23.052033369151	0.0002
0	2746	23.270998040607	0.0002
0	2757	23.303539712323	0.0002
0	2768	23.306227774274	0.0002
0	2780	23.346207301522	0.0002
0	2790	23.364668888813	0.0002
0	2801	23.404707041959	0.0002
0	2812	23.47654362548	0.0002
0	2823	23.525454466542	0.0002
0	2834	23.814966228244	0.0002
0	2845	23.928011948075	0.0002
0	2856	24.007499231682	0.0002
0	2867	24.023547642418	0.0002
0	2879	24.124348996466	0.0002
0	2889	24.186008305318	0.0002
0	2900	24.267667574203	0.0002
0	2911	24.337525674811	0.0002
0	2922	24.392952522152	0.0002
0	2933	24.396421915991	0.002814591974
0	2943	24.511214337696	0.0002
0	2954	24.545431806858	0.0002
0	2965	24.674220830769	0.0002
0	2976	24.699979317403	0.0002
0	2988	25.057829489987	0.0002
0	2998	25.304093916928	0.0002
0	3010	25.362194782474	0.0002
0	3021	25.466777311753	0.0002
0	3031	25.718766181138	0.0002
0	3043	26.191405700824	0.0002
0	3053	26.355741024345	0.0002
0	3064	26.531085836173	0.0002
0	3076	26.749357225102	0.0002
0	3086	26.789152064567	0.0002
0	3097	26.867820376113	0.0002
0	3108	26.915520151207	0.0002
0	3120	26.928408015811	0.0002
0	3131	26.962252129093	0.0002
0	3141	26.974593076244	0.0002
0	3152	27.0126441711	0.0002
0	3163	27.09537676346	0.0002
0	3174	27.182152277754	0.0002
0	3185	27.209338861611	0.0002
0	3197	27.225106066894	0.0002
0	3207	27.323329885335	0.0002
0	3219	27.565235024751	0.0002
0	3229	27.622178636138	0.0002
0	3240	27.686551116723	0.0002
0	3251	27.743601715531	0.0002
0	3263	27.869201275408	0.0002
0	3273	27.907850693612	0.0002
0	3284	27.998807764099	0.0002
0	3294	28.002696408822	0.003568331442
0	3306	28.108352636026	0.0002
0	3316	28.130712541859	0.0002
0	3327	28.167710459834	0.0002
0	3338	28.267966700667	0.0002
0	3349	28.324636896652	0.0002
0	3361	28.414305480311	0.0002
0	3371	28.504145716955	0.0002
0	3382	28.611153965918	0.0002
0	3393	28.783593154465	0.0002
0	3403	28.790826622918	0.003604588676
0	3414	28.846868635912	0.0002
0	3425	28.958355321319	0.0002
0	3436	29.041381385996	0.0002
0	3448	29.053427212773	0.0002
0	3458	29.061989292184	0.0002
0	3469	29.064182030253	0.0002
0	3480	29.094377530602	0.0002
0	3492	29.114150707396	0.0002
0	3502	29.153472436095	0.0002
0	3513	29.429093743843	0.0002
0	3524	29.434487439485	0.0002
0	3536	29.65686572106	0.0002
0	3546	29.680632308171	0.0002
0	3559	29.701588756744	0.0002
0	3568	29.702485895477	0.0002
0	3580	29.799029475447	0.0002
0	3591	29.809184352505	0.0002
0	3602	30.036081261167	0.0002
0	3612	30.100172803487	0.0002
0	3624	30.171179838053	0.0002
0	3634	30.181711279973	0.0002
0	3646	30.247819260056	0.0002
0	3656	30.274641569383	0.0002
0	3667	30.287862729366	0.0002
0	3678	30.338889869142	0.0002
0	3690	30.341111734344	0.0002
0	3700	30.449466553173	0.0002
0	3711	30.694797137323	0.0002
0	3722	30.733965591311	0.0002
0	3733	30.9131310249	0.0002
0	3744	30.946141694305	0.0002
0	3756	31.028598866623	0.0002
0	3767	31.104284298346	0.0002
0	3778	31.213849285371	0.0002
0	3790	31.433930972808	0.0002
0	3799	31.655860524985	0.0002
0	3810	31.932670530754	0.0002
0	3822	32.091790757088	0.0002
0	3832	32.135676174792	0.0002
0	3843	32.282937461046	0.0002
0	3855	32.383289899836	0.0002
0	3867	32.460353005916	0.0002
0	3877	32.461225795547	0.0002
0	3887	32.476807714158	0.0002
0	3898	32.501995192627	0.0002
0	3909	32.507663580743	0.0002
0	3920	32.723904075016	0.0002
0	3931	32.764279365727	0.0002
0	3942	32.819956446871	0.0002
0	3953	32.827257701255	0.0002
0	3964	32.87641223713	0.0002
0	3975	32.919522419852	0.0002
0	3986	33.124396219209	0.0002
0	3997	33.145804438675	0.0002
0	4008	33.232478545742	0.0002
0	4019	33.335299077571	0.0002
0	4030	33.415389945857	0.0002
0	4041	33.437768823071	0.0002
0	4053	33.448026749061	0.0002
0	4063	33.498369360606	0.0002
0	4075	33.586421204437	0.0002
0	4086	33.680323064789	0.0002
0	4096	33.698968028208	0.0002
0	4107	34.075336107561	0.0002
0	4118	34.11514220806	0.0002
0	4129	34.296153309206	0.0002
0	4141	34.349871682915	0.0002
0	4153	34.477951315222	0.0002
0	4162	34.533454487753	0.0002
0	4173	34.917646118099	0.0002
0	4184	35.020838188391	0.0002
0	4195	35.131014380123	0.0002
0	4206	35.280039288791	0.0002
0	4217	35.331842194503	0.0002
0	4228	35.338571891223	0.0002
0	4240	35.364847432217	0.0002
0	4250	35.513143368655	0.0002
0	4261	35.640951998044	0.0002
0	4272	35.662521982172	0.0002
0	4283	35.739194520385	0.0002
0	4294	36.108041717933	0.0002
0	4306	36.11626797448	0.0002
0	4318	36.486867038212	0.0002
0	4328	36.515242048466	0.0002
0	4338	36.567484972801	0.0002
0	4350	36.624047264903	0.0002
0	4361	36.89784959443	0.0002
0	4371	36.992263719637	0.0002
0	4383	37.260363228612	0.0002
0	4393	37.285783694883	0.0002
0	4403	37.288406520405	0.002073191077
0	4413	37.404673869187	0.0002
0	4424	37.495323996909	0.0002
0	4435	37.556127159485	0.0002
0	4446	37.662282491115	0.0002
0	4457	37.772615021385	0.0002
0	4468	37.781505443875	0.0002
0	4479	37.789992816256	0.0002
0	4490	37.884494615317	0.0002
0	4502	38.01404028171	0.0002
0	4513	38.02966954596	0.0002
0	4524	38.036330059684	0.0002
0	4534	38.079155862565	0.0002
0	4546	38.171343788393	0.0002
0	4557	38.188448970297	0.0002
0	4567	38.31836890354	0.0002
0	4579	38.511099353265	0.0002
0	4590	38.513708749761	0.0002
0	4601	38.522053551517	0.0002
0	4612	38.662746606045	0.0002
0	4622	38.723753685173	0.0002
0	4633	38.834198365672	0.0002
0	4644	38.923068768433	0.0002
0	4655	39.008653690577	0.0002
0	4666	39.130039746883	0.0002
0	4677	39.490905248576	0.0002
0	4688	39.507942984445	0.0002
0	4699	39.511409454701	0.0002
0	4710	39.697748053081	0.0002
0	4721	39.71140893905	0.0002
0	4732	39.738765425275	0.0002
0	4743	39.857099377611	0.0002
0	4754	39.921906413579	0.0002
0	4765	39.951159220871	0.0002
0	4776	40.052730488177	0.0002
0	4787	40.097220335076	0.0002
0	4798	40.185742019541	0.0002
0	4809	40.208566681861	0.0002
0	4821	40.239546895317	0.0002
0	4831	40.622003860961	0.0002
0	4842	40.643045551284	0.0002
0	4853	40.690205123329	0.0002
0	4864	40.805581499666	0.0002
0	4875	41.137288237437	0.0002
0	4886	41.733911807412	0.0002
0	4897	41.738540758004	0.0002
0	4908	41.807240321595	0.0002
0	4919	41.81613175783	0.0002
0	4930	42.085940062125	0.0002
0	4941	42.123262034961	0.0002
0	4953	42.242754848298	0.0002
0	4963	42.273491575573	0.0002
0	4974	42.295170578148	0.0002
0	4986	42.571518222207	0.0002
0	4997	42.700614492766	0.0002
0	5008	42.83853602784	0.0002
0	5018	42.847679892644	0.0002
0	5029	42.978409031144	0.0002
0	5040	43.014992515058	0.0002
0	5051	43.10033158368	0.0002
0	5062	43.182378340472	0.0002
0	5073	43.187630949508	0.0002
0	5085	43.282936292126	0.0002
0	5095	43.310911972365	0.0002
0	5107	43.446096658055	0.0002
0	5118	43.549497240329	0.0002
0	5128	43.679501841247	0.0002
0	5140	43.820828822776	0.0002
0	5150	44.090088809543	0.0002
0	5161	44.10806521836	0.0002
0	5172	44.307190867494	0.0002
0	5183	44.334982172174	0.0002
0	5194	44.714485405546	0.0002
0	5205	44.764314287267	0.0002
0	5216	44.922548352296	0.0002
0	5227	44.960955509466	0.0002
0	5238	45.183130229716	0.0002
0	5249	45.241250960027	0.0002
0	5260	45.350602897742	0.0002
0	5271	45.443256588796	0.0002
0	5282	45.45581762373	0.0002
0	5293	45.523464611717	0.0002
0	5305	45.537946225165	0.0002
0	5315	45.605516456741	0.0002
0	5327	45.638382662508	0.0002
0	5337	45.679031919264	0.0002
0	5348	45.737752456394	0.0002
0	5359	45.893707584566	0.0002
0	5370	45.901565007262	0.0002
0	5381	46.057850162703	0.0002
0	5391	46.059486272444	0.000863059148
0	5402	46.183299421175	0.0002
0	5413	46.303711537187	0.0002
0	5424	46.402968448972	0.0002
0	5436	46.456378047769	0.0002
0	5446	46.459636113127	0.0002
0	5458	46.648895246034	0.0002
0	5468	46.675085205092	0.0002
0	5479	46.679241416972	0.0002
0	5491	46.767906630433	0.0002
0	5501	47.02081977443	0.0002
0	5512	47.287952241472	0.0002
0	5524	47.373305408507	0.0002
0	5534	47.385619559198	0.0002
0	5546	47.398891462183	0.0002
0	5557	47.476503779945	0.0002
0	5568	47.634972350628	0.0002
0	5578	47.754889920234	0.0002
0	5589	48.377633137032	0.0002
0	5600	48.403949226693	0.0002
0	5611	48.540246559862	0.0002
0	5622	48.56623475507	0.0002
0	5633	48.833710694456	0.0002
0	5645	49.042688083224	0.0002
0	5657	49.056464587578	0.0002
0	5666	49.085593435917	0.0002
0	5677	49.189010559794	0.0002
0	5688	49.248835081329	0.0002
0	5700	49.502909425046	0.0002
0	5710	49.714816420325	0.0002
0	5721	49.791560812629	0.0002
0	5732	49.831030792551	0.0002
0	5743	49.862062854022	0.0002
0	5755	49.92991480887	0.0002
0	5766	49.970052236391	0.0002
0	5776	49.97247876195	0.001230318734
0	5786	50.024850777288	0.0002
0	5797	50.085071606693	0.0002
0	5809	50.350250669234	0.0002
0	5819	50.415908133482	0.0002
0	5831	50.441950640431	0.0002
0	5843	50.516692507983	0.0002
0	5852	50.695213919742	0.0002
0	5865	50.930419508249	0.0002
0	5875	51.032836986149	0.0002
0	5885	51.273712260219	0.0002
0	5897	51.29422395777	0.0002
0	5907	51.307774740534	0.0002
0	5918	51.450506877001	0.0002
0	5929	51.581617423367	0.0002
0	5940	51.634729175279	0.0002
0	5951	51.662650779107	0.0002
0	5962	51.773855667743	0.0002
0	5973	51.823772843081	0.0002
0	5985	51.85275818664	0.0002
0	5995	52.007338807531	0.0002
0	6006	52.013743159338	0.0002
0	6017	52.052000746745	0.0002
0	6028	52.173832024361	0.0002
0	6039	52.186367910627	0.0002
0	6050	52.217331233204	0.0002
0	6061	52.23519113751	0.0002
0	6073	52.38378510586	0.0002
0	6083	52.731704525652	0.0002
0	6094	52.793029577804	0.0002
0	6106	53.018898780222	0.0002
0	6117	53.065955227843	0.0002
0	6128	53.191844828358	0.0002
0	6138	53.574217385725	0.0002
0	6149	53.597292569423	0.0002
0	6161	54.01575760047	0.0002
0	6171	54.043898173906	0.0002
0	6182	54.051682994469	0.0002
0	6193	54.225269972552	0.0002
0	6204	54.271234275356	0.0002
0	6215	54.390289555032	0.0002
0	6226	54.408240424631	0.0002
0	6237	54.493821556656	0.0002
0	6249	54.520843766608	0.0002
0	6259	54.572452239177	0.0002
0	6270	54.859172846448	0.0002
0	6281	54.9277995622	0.0002
0	6292	54.947824857692	0.0002
0	6303	54.975333089068	0.0002
0	6314	55.099017315376	0.0002
0	6325	55.144191535994	0.0002
0	6336	55.247680479003	0.0002
0	6347	55.516872376436	0.0002
0	6359	55.957163815528	0.0002
0	6369	55.958554247617	0.001057510581
0	6378	56.186163650932	0.0002
0	6391	56.276694685111	0.0002
0	6400	56.280130185827	0.0002
0	6411	56.425302038177	0.0002
0	6422	56.470435764842	0.0002
0	6433	56.538476750096	0.0002
0	6444	56.634433247947	0.0002
0	6455	56.756161198887	0.0002
0	6467	56.848219581197	0.0002
0	6477	56.981774094626	0.0002
0	6488	57.014509531222	0.0002
0	6499	57.249309371484	0.0002
0	6510	57.43861085483	0.0002
0	6521	57.467061938006	0.0002
0	6532	57.593995271318	0.0002
0	6544	57.706290732004	0.0002
0	6554	57.868419392273	0.0002
0	6565	57.972607582163	0.0002
0	6576	58.058743623814	0.0002
0	6587	58.074237055383	0.0002
0	6598	58.215241484457	0.0002
0	6609	58.307787100083	0.0002
0	6620	58.343256742632	0.0002
0	6631	58.458711267162	0.0002
0	6642	58.562901756543	0.0002
0	6654	58.566110138596	0.0002
0	6664	58.567096746406	0.000244667154
0	6675	58.719964302678	0.0002
0	6685	58.936941496773	0.0002
0	6697	58.942702441851	0.0002
0	6708	59.014952308718	0.0002
0	6718	59.0890526706	0.0002
0	6730	59.51145138244	0.0002
0	6741	59.570609178812	0.0002
0	6752	59.779880830945	0.0002
0	6762	59.927389535672	0.0002
0	6774	59.942371095072	0.0002
0	6784	60.040320103195	0.0002
0	6796	60.089450034722	0.0002
0	6807	60.133524019411	0.0002
0	6818	60.195622065549	0.0002
0	6828	60.28966419933	0.0002
0	6839	60.330889136727	0.0002
0	6851	60.724161710192	0.0002
0	6861	60.750337881159	0.0002
0	6872	61.046844817565	0.0002
0	6884	61.498123349156	0.0002
0	6894	61.501607953818	0.0002
0	6905	61.741005033982	0.0002
0	6916	61.771920189105	0.0002
0	6927	61.793494549946	0.0002
0	6938	61.862813549104	0.0002
0	6949	61.970284788078	0.0002
0	6960	62.07340420615	0.0002
0	6972	62.111241076857	0.0002
0	6982	62.366466163878	0.0002
0	6993	62.376768710697	0.0002
0	7004	62.396361645091	0.0002
0	7015	62.413131299952	0.0002
0	7026	62.493525845918	0.0002
0	7038	62.519293728354	0.0002
0	7048	62.746652180815	0.0002
0	7059	62.760098066604	0.0002
0	7070	63.036313898114	0.0002
0	7081	63.079451749	0.0002
0	7092	63.129565827827	0.0002
0	7104	63.17521218923	0.0002
0	7115	63.293867433385	0.0002
0	7126	63.611223546654	0.0002
0	7136	63.86512975767	0.0002
0	7147	63.981753452506	0.0002
0	7158	63.995345402482	0.0002
0	7170	64.023122701893	0.0002
0	7181	64.052221213979	0.0002
0	7192	64.168564873211	0.0002
0	7203	64.248246289809	0.0002
0	7213	64.332741814102	0.0002
0	7224	64.357693682869	0.0002
0	7235	64.500352516009	0.0002
0	7248	64.580278363723	0.0002
0	7257	64.625080111438	0.0002
0	7268	65.038786352601	0.0002
0	7280	65.061790471733	0.0002
0	7290	65.167493662148	0.0002
0	7301	65.196422012649	0.0002
0	7312	65.351616589157	0.0002
0	7323	65.360126757164	0.0002
0	7334	65.385143520098	0.0002
0	7345	65.459780731306	0.0002
0	7357	65.722831834807	0.0002
0	7367	65.744693982369	0.0002
0	7378	65.7534873169	0.0002
0	7389	65.826286312584	0.0002
0	7402	65.890002091726	0.0002
0	7414	65.891625292202	0.001751478686
0	7420	65.893287614589	0.001924675522
0	7430	65.935551382949	0.0002
0	7440	66.027414150697	0.0002
0	7451	66.156627628477	0.0002
0	7462	66.169126324983	0.0002
0	7473	66.180261110782	0.0002
0	7484	66.304962874152	0.0002
0	7495	66.522222129527	0.0002
0	7506	66.671577510549	0.0002
0	7517	66.823670097186	0.0002
0	7529	66.953443891497	0.0002
0	7539	67.115501756558	0.0002
0	7550	67.316711139276	0.0002
0	7561	67.318084298774	0.0002
0	7573	67.567159025717	0.0002
0	7583	67.571160247941	0.0002
0	7594	67.62759226285	0.0002
0	7605	67.691202307259	0.0002
0	7616	67.769252146195	0.0002
0	7627	67.879277485193	0.0002
0	7638	67.885691964444	0.0002
0	7649	67.919442737459	0.0002
0	7660	68.022230267435	0.0002
0	7671	68.059701210474	0.0002
0	7682	68.165103464188	0.0002
0	7693	68.221356676118	0.0002
0	7705	68.22599939427	0.002584249285
0	7715	68.481702398863	0.0002
0	7725	68.497271808404	0.0002
0	7736	68.513403170121	0.0002
0	7748	68.845585399895	0.0002
0	7759	68.876602735705	0.0002
0	7771	68.95174818357	0.0002
0	7780	69.834824814093	0.0002
0	7793	69.850265701465	0.0002
0	7803	69.874002825389	0.0002
0	7813	70.070873065729	0.0002
0	7825	70.397473109298	0.0002
0	7835	70.449295454074	0.0002
0	7847	70.573641167048	0.0002
0	7857	70.590056211024	0.0002
0	7868	70.697146491121	0.0002
0	7879	70.758365013944	0.0002
0	7890	70.99754852666	0.0002
0	7902	71.028112294133	0.0002
0	7912	71.074864787754	0.0002
0	7924	71.116392552434	0.0002
0	7934	71.153327923216	0.0002
0	7945	71.178402660173	0.0002
0	7956	71.186190321769	0.0002
0	7967	71.272147512252	0.0002
0	7978	71.276696198073	0.0002
0	7989	71.283291522197	0.0002
0	8000	71.581612418786	0.0002
0	8012	71.592301258475	0.0002
0	8022	71.614197275314	0.0002
0	8033	71.836114908141	0.0002
0	8044	71.872194419404	0.0002
0	8055	72.224227300987	0.0002
0	8066	72.362446787521	0.0002
0	8078	72.408640920007	0.0002
0	8088	72.425753140304	0.0002
0	8100	72.475635029206	0.0002
0	8110	72.492210072782	0.0002
0	8121	72.511682141362	0.0002
0	8132	72.597281450411	0.0002
0	8143	72.723908492858	0.0002
0	8154	72.760625267947	0.0002
0	8165	72.826524537257	0.0002
0	8176	72.854995498087	0.0002
0	8187	73.29216712156	0.0002
0	8199	73.321278189209	0.0002
0	8210	73.370141959331	0.0002
0	8220	73.383575965105	0.0002
0	8231	73.39976887977	0.0002
0	8242	73.442159418883	0.0002
0	8254	73.49172920949	0.0002
0	8264	73.503919689103	0.0002
0	8275	73.662940641622	0.0002
0	8286	73.729453943226	0.0002
0	8298	73.828264019704	0.0002
0	8308	74.007206286379	0.0002
0	8319	74.029108970826	0.0002
0	8330	74.088301106166	0.0002
0	8342	74.284715834801	0.0002
0	8352	74.432117716444	0.0002
0	8363	74.501725308864	0.0002
0	8374	74.533751423047	0.0002
0	8385	74.681868081545	0.0002
0	8396	74.821739703753	0.0002
0	8408	74.83083675254	0.0002
0	8418	74.949382574995	0.0002
0	8429	75.106219148408	0.0002
0	8440	75.154401152931	0.0002
0	8451	75.217811301275	0.0002
0	8462	75.290094626446	0.0002
0	8473	75.328575568299	0.0002
0	8485	75.389615305172	0.0002
0	8495	75.537195962765	0.0002
0	8506	75.648192645836	0.0002
0	8517	75.762485068359	0.0002
0	8528	75.948973588447	0.0002
0	8539	75.975592849492	0.0002
0	8550	76.360284222299	0.0002
0	8561	76.374720701059	0.0002
0	8572	76.422469693571	0.0002
0	8583	76.424504378891	0.0002
0	8594	76.488918154607	0.0002
0	8605	76.525830189428	0.0002
0	8616	76.635493186362	0.0002
0	8627	76.707976631458	0.0002
0	8639	76.754372899332	0.0002
0	8649	76.833551103823	0.0002
0	8660	76.837550244188	0.0002
0	8671	76.99068868015	0.0002
0	8682	77.126866142262	0.0002
0	8694	77.16475632815	0.0002
0	8705	77.327614162824	0.0002
0	8716	77.354939196883	0.0002
0	8726	77.448494392135	0.0002
0	8737	77.557279888374	0.0002
0	8748	77.599356111114	0.0002
0	8760	77.696791940372	0.0002
0	8772	77.727060699026	0.0002
0	8781	77.900057827094	0.0002
0	8792	77.944785765566	0.0002
0	8803	78.014454640206	0.0002
0	8816	78.069097388572	0.0002
0	8825	78.158543202592	0.0002
0	8836	78.286246908108	0.0002
0	8847	78.41858361937	0.0002
0	8859	78.479075315044	0.0002
0	8871	78.52781221667	0.0002
0	8881	78.684022199164	0.0002
0	8891	78.701846825759	0.0002
0	8902	78.727650270381	0.0002
0	8913	78.819686586554	0.0002
0	8924	78.845280233161	0.0002
0	8935	79.026101524118	0.0002
0	8946	79.028879837486	0.0002
0	8959	79.118318676609	0.0002
0	8968	79.142845342113	0.0002
0	8980	79.233475844381	0.0002
0	8990	79.285646551111	0.0002
0	9001	79.294451905329	0.0002
0	9012	79.298013518002	0.0002
0	9023	79.589218947987	0.0002
0	9035	79.60090014964	0.0002
0	9046	79.660973231033	0.0002
0	9057	79.775411036714	0.0002
0	9068	80.179443621186	0.0002
0	9078	80.321106955038	0.0002
0	9089	80.415055801053	0.0002
0	9100	80.442764732988	0.0002
0	9111	80.632606933981	0.0002
0	9123	80.679016211086	0.0002
0	9133	80.926290712392	0.0002
0	9144	80.992638291866	0.0002
0	9156	81.097191965181	0.0002
0	9166	81.293822232548	0.0002
0	9177	81.594724442993	0.0002
0	9188	81.7632403835	0.0002
0	9199	81.918098939979	0.0002
0	9210	82.006886886497	0.0002
0	9221	82.01195903879	0.0002
0	9234	82.066824968694	0.0002
0	9243	82.071043339102	0.0002
0	9254	82.115174085718	0.0002
0	9265	82.196228848221	0.0002
0	9277	82.200299074721	0.00028722177
0	9287	82.310367231921	0.0002
0	9297	82.405034433046	0.0002
0	9308	82.54996651991	0.0002
0	9319	82.563147832179	0.0002
0	9330	82.631420936858	0.0002
0	9342	82.656111208322	0.0002
0	9352	82.782643798666	0.0002
0	9363	82.784422049305	0.000956554845
0	9373	82.969249332786	0.0002
0	9384	83.247705368607	0.0002
0	9395	83.285886146869	0.0002
0	9406	83.337658004598	0.0002
0	9417	83.390842757117	0.0002
0	9428	83.464889457798	0.0002
0	9439	83.50949848542	0.0002
0	9451	83.593904570673	0.0002
0	9461	83.906556222618	0.0002
0	9474	84.134986368892	0.0002
0	9483	84.162512171888	0.0002
0	9494	84.351466901811	0.0002
0	9506	84.402031504414	0.0002
0	9517	84.441335605238	0.0002
0	9527	84.478622832819	0.0002
0	9539	84.482706810802	0.0002
0	9550	84.499298930295	0.0002
0	9560	84.603034283746	0.0002
0	9572	84.607019572826	0.0002
0	9583	84.751384968957	0.0002
0	9593	84.859875855929	0.0002
0	9604	84.917240398661	0.0002
0	9616	84.920567064728	0.0002
0	9626	84.992847181385	0.0002
0	9637	85.095730334523	0.0002
0	9648	85.161374712216	0.0002
0	9659	85.280972000361	0.0002
0	9670	85.327183806254	0.0002
0	9681	85.330217473927	0.0002
0	9692	85.427453314561	0.0002
0	9703	85.540989648379	0.0002
0	9714	85.570637375126	0.0002
0	9725	85.677394804357	0.0002
0	9737	85.799923830185	0.0002
0	9747	85.835502643669	0.0002
0	9758	85.89061555937	0.0002
0	9769	85.938966019494	0.0002
0	9781	86.039188694611	0.0002
0	9791	86.084802703113	0.0002
0	9802	86.209042697782	0.0002
0	9814	86.295336793781	0.0002
0	9824	86.305642239927	0.0002
0	9835	86.411223890124	0.0002
0	9846	86.622591859319	0.0002
0	9858	86.950688234151	0.0002
0	9868	87.154010672736	0.0002
0	9879	87.448732250137	0.0002
0	9890	87.548221503581	0.0002
0	9901	87.642842783325	0.0002
0	9913	87.790372371716	0.0002
0	9923	87.872456173107	0.0002
0	9934	87.897099103025	0.0002
0	9945	88.304905421587	0.0002
0	9956	88.331688645	0.0002
0	9968	88.508971532193	0.0002
0	9978	88.876678567918	0.0002
0	9989	88.975209280402	0.0002
0	10000	88.998609449181	0.0002
0	10011	89.027460547996	0.0002
0	10022	89.033484804292	0.0002
0	10033	89.053043934193	0.0002
0	10044	89.124337827031	0.0002
0	10055	89.181556994494	0.0002
0	10066	89.395396927926	0.0002
0	10077	89.46587815028	0.0002
0	10088	89.472225247873	0.0002
0	10099	89.521594207094	0.0002
0	10110	89.710409164484	0.0002
0	10120	89.711592430941	0.00040070283
0	10131	89.758738446043	0.0002
0	10142	89.852130257471	0.0002
0	10153	89.971298734122	0.0002
0	10164	89.996622646088	0.0002
0	10176	90.454815542396	0.0002
0	10186	90.464604832967	0.0002
0	10198	90.535506814966	0.0002
0	10209	90.607898994842	0.0002
0	10219	90.62035807296	0.0002
0	10230	90.628957046512	0.0002
0	10241	90.634349583698	0.0002
0	10252	90.694905771069	0.0002
0	10263	90.810837876149	0.0002
0	10274	91.242041382866	0.0002
0	10285	91.488722289055	0.0002
0	10297	91.544318746842	0.0002
0	10307	91.635155844162	0.0002
0	10318	91.781161816477	0.0002
0	10330	91.938234170585	0.0002
0	10342	91.950361986101	0.0002
0	10351	92.061919367806	0.0002
0	10362	92.112810034479	0.0002
0	10374	92.123701508796	0.0002
0	10384	92.135623913398	0.0002
0	10396	92.354192721727	0.0002
0	10406	92.421104254253	0.0002
0	10417	92.588184000641	0.0002
0	10428	92.759528940608	0.0002
0	10440	92.949511415171	0.0002
0	10450	92.981344164656	0.0002
0	10462	93.337059247523	0.0002
0	10472	93.362861722606	0.0002
0	10483	93.419042641662	0.0002
0	10494	93.45754899489	0.0002
0	10505	93.606221679463	0.0002
0	10516	93.635902443296	0.0002
0	10528	93.901034990684	0.0002
0	10538	93.915518148255	0.0002
0	10550	94.156768806268	0.0002
0	10560	94.160588608351	0.0002
0	10571	94.220705837313	0.0002
0	10582	94.344660020639	0.0002
0	10594	94.463956139233	0.0002
0	10604	94.578317839695	0.0002
0	10615	94.719967443453	0.0002
0	10626	94.740889278306	0.0002
0	10638	94.837788193914	0.0002
0	10648	94.858623665326	0.0002
0	10659	94.962688794433	0.0002
0	10670	95.008923335748	0.0002
0	10682	95.021780140684	0.0002
0	10692	95.047674429163	0.0002
0	10703	95.075793553085	0.0002